# vtk DataFile Version 3.0 
Exported using Morpho https://github.com/Morpho-lang/morpho 
ASCII 
DATASET UNSTRUCTURED_GRID 

POINTS 2211 float 
-12 -8 0 
-11.4685 -8 0 
-10.968 -8 0 
-10.4991 -8 0 
-10.055 -8 0 
-9.62855 -8 0 
-9.21377 -8 0 
-8.80613 -8 0 
-8.4025 -8 0 
-8.00093 -8 0 
-7.60032 -8 0 
-7.2001 -8 0 
-6.80003 -8 0 
-6.40002 -8 0 
-6.00001 -8 0 
-5.60001 -8 0 
-5.20001 -8 0 
-4.80001 -8 0 
-4.40001 -8 0 
-4.00001 -8 0 
-3.60001 -8 0 
-3.19999 -8 0 
-2.79977 -8 0 
-2.39857 -8 0 
-1.99449 -8 0 
-1.58771 -7.81318 0 
-1.19016 -8 0 
-0.860218 -7.83594 0 
-0.413563 -8 0 
8.61313e-09 -8 0 
0.413563 -8 0 
0.855354 -7.8296 0 
1.19016 -8 0 
1.59529 -7.8127 0 
1.99449 -8 0 
2.39856 -8 0 
2.79977 -8 0 
3.19998 -8 0 
3.6 -8 0 
4 -8 0 
4.39999 -8 0 
4.79999 -8 0 
5.19999 -8 0 
5.59999 -8 0 
5.99999 -8 0 
6.39999 -8 0 
6.80001 -8 0 
7.20008 -8 0 
7.60029 -8 0 
8.00091 -8 0 
8.40248 -8 0 
8.80611 -8 0 
9.21375 -8 0 
9.62854 -8 0 
10.055 -8 0 
10.4991 -8 0 
10.9679 -8 0 
11.4685 -8 0 
12 -8 0 
-12 -7.46855 0 
-11.614 -7.61126 0 
-11.0988 -7.6012 0 
-10.6391 -7.56715 0 
-10.1719 -7.56933 0 
-9.73203 -7.55005 0 
-9.30432 -7.54689 0 
-8.88219 -7.55431 0 
-8.45836 -7.54963 0 
-8.04712 -7.56202 0 
-7.6243 -7.55537 0 
-7.21912 -7.56563 0 
-6.79605 -7.55667 0 
-6.39048 -7.55275 0 
-5.96915 -7.57137 0 
-5.56119 -7.56354 0 
-5.15548 -7.5444 0 
-4.7422 -7.55405 0 
-4.34311 -7.53634 0 
-3.93414 -7.54461 0 
-3.53555 -7.53669 0 
-3.13263 -7.55093 0 
-2.73979 -7.56106 0 
-2.34055 -7.58099 0 
-1.96212 -7.57886 0 
-1.62122 -7.41155 0 
-1.24357 -7.60676 0 
-0.863653 -7.51759 0 
-0.454699 -7.70085 0 
-0.0219129 -7.72986 0 
0.440847 -7.70092 0 
0.906844 -7.52479 0 
1.25573 -7.59891 0 
1.63097 -7.41556 0 
1.97872 -7.58499 0 
2.36604 -7.58404 0 
2.7734 -7.56535 0 
3.18374 -7.54619 0 
3.58139 -7.54453 0 
3.99914 -7.54512 0 
4.40644 -7.53887 0 
4.82739 -7.55364 0 
5.23851 -7.54856 0 
5.66069 -7.55845 0 
6.07393 -7.55405 0 
6.48741 -7.55383 0 
6.89742 -7.54647 0 
7.30628 -7.54572 0 
7.71635 -7.55024 0 
8.13048 -7.54854 0 
8.54256 -7.53616 0 
8.9499 -7.54781 0 
9.37753 -7.54955 0 
9.79871 -7.53765 0 
10.2301 -7.56854 0 
10.6977 -7.57763 0 
11.1494 -7.573 0 
11.612 -7.61489 0 
12 -7.46854 0 
-12 -6.96795 0 
-11.6062 -7.09545 0 
-11.2131 -7.2168 0 
-10.7475 -7.12479 0 
-10.2927 -7.16016 0 
-9.8327 -7.10973 0 
-9.39692 -7.10051 0 
-8.96361 -7.10901 0 
-8.53726 -7.11708 0 
-8.10125 -7.11432 0 
-7.68809 -7.13355 0 
-7.25302 -7.11647 0 
-6.84814 -7.14268 0 
-6.41342 -7.11061 0 
-5.99771 -7.15039 0 
-5.57449 -7.12453 0 
-5.18335 -7.07832 0 
-4.78223 -7.11343 0 
-4.37096 -7.07433 0 
-3.96708 -7.09479 0 
-3.56029 -7.07555 0 
-3.1642 -7.10312 0 
-2.77057 -7.11099 0 
-2.3979 -7.15655 0 
-2.02392 -7.15526 0 
-1.66605 -7.05357 0 
-1.26561 -7.25046 0 
-1.01257 -7.1385 0 
-0.377717 -7.42898 0 
0.07929 -7.47559 0 
0.548862 -7.43474 0 
0.931151 -7.2198 0 
1.30857 -7.22311 0 
1.64868 -7.03431 0 
2.00292 -7.16516 0 
2.38689 -7.16861 0 
2.72582 -7.09627 0 
3.09897 -7.11724 0 
3.49812 -7.0777 0 
3.89452 -7.11102 0 
4.30524 -7.08336 0 
4.71981 -7.11088 0 
5.12949 -7.09916 0 
5.54497 -7.1251 0 
5.9641 -7.11242 0 
6.37745 -7.11276 0 
6.78958 -7.10235 0 
7.20581 -7.09678 0 
7.62033 -7.10163 0 
8.03446 -7.10887 0 
8.45946 -7.09329 0 
8.89323 -7.0839 0 
9.30339 -7.12188 0 
9.75533 -7.08669 0 
10.2004 -7.11958 0 
10.6362 -7.17702 0 
11.1335 -7.12315 0 
11.5775 -7.15959 0 
12 -6.96795 0 
-12 -6.49908 0 
-11.5701 -6.61748 0 
-11.1501 -6.76473 0 
-10.7001 -6.67562 0 
-10.2527 -6.73704 0 
-9.80373 -6.66583 0 
-9.35434 -6.66494 0 
-8.91907 -6.66969 0 
-8.47344 -6.69453 0 
-8.05164 -6.66934 0 
-7.61987 -6.7141 0 
-7.20171 -6.67066 0 
-6.78037 -6.72508 0 
-6.3788 -6.65025 0 
-5.98944 -6.72419 0 
-5.59848 -6.66652 0 
-5.19127 -6.62577 0 
-4.77987 -6.66367 0 
-4.36326 -6.6297 0 
-3.94813 -6.64275 0 
-3.53807 -6.6291 0 
-3.14093 -6.6575 0 
-2.76341 -6.66502 0 
-2.39251 -6.70979 0 
-2.05429 -6.74822 0 
-1.76825 -6.62825 0 
-1.44522 -6.84382 0 
-1.20611 -6.77775 0 
-0.661004 -7.26468 0 
-0.00621809 -7.22534 0 
0.460904 -7.24922 0 
1.1828 -6.9029 0 
1.48159 -6.78213 0 
1.84 -6.61004 0 
2.06976 -6.78186 0 
2.37808 -6.69654 0 
2.75478 -6.66058 0 
3.13047 -6.67175 0 
3.53208 -6.62994 0 
3.93258 -6.66598 0 
4.36786 -6.65245 0 
4.77565 -6.66128 0 
5.20507 -6.66635 0 
5.62309 -6.69041 0 
6.04337 -6.6712 0 
6.45395 -6.66632 0 
6.87428 -6.66205 0 
7.29395 -6.65357 0 
7.70545 -6.65425 0 
8.12316 -6.6687 0 
8.56535 -6.66339 0 
8.98224 -6.62339 0 
9.4081 -6.6965 0 
9.88436 -6.66576 0 
10.3177 -6.68246 0 
10.7646 -6.77491 0 
11.1708 -6.62945 0 
11.5755 -6.70713 0 
12 -6.49908 0 
-12 -6.05499 0 
-11.5548 -6.15922 0 
-11.12 -6.31643 0 
-10.6888 -6.20661 0 
-10.2673 -6.30688 0 
-9.83419 -6.2177 0 
-9.40248 -6.23809 0 
-8.95207 -6.23079 0 
-8.51761 -6.2715 0 
-8.07963 -6.22777 0 
-7.65527 -6.28215 0 
-7.2359 -6.2334 0 
-6.81505 -6.28673 0 
-6.40971 -6.20431 0 
-5.99683 -6.2638 0 
-5.58683 -6.22099 0 
-5.17419 -6.17416 0 
-4.76697 -6.223 0 
-4.36029 -6.17604 0 
-3.95899 -6.20327 0 
-3.56466 -6.17771 0 
-3.17466 -6.21289 0 
-2.8021 -6.21374 0 
-2.45582 -6.27281 0 
-2.12835 -6.29882 0 
-1.82606 -6.23754 0 
-1.51912 -6.43536 0 
-1.17388 -6.54082 0 
-0.877417 -6.91182 0 
-0.275155 -7.18672 0 
0.862771 -7.02248 0 
1.16459 -6.61104 0 
1.52152 -6.48224 0 
1.80426 -6.26127 0 
2.13241 -6.28131 0 
2.45774 -6.27323 0 
2.79199 -6.20762 0 
3.16174 -6.2325 0 
3.50889 -6.13725 0 
3.87011 -6.20961 0 
4.25648 -6.2433 0 
4.69171 -6.20665 0 
5.09682 -6.24016 0 
5.52865 -6.24599 0 
5.93509 -6.24155 0 
6.35544 -6.21975 0 
6.76632 -6.22904 0 
7.18829 -6.21998 0 
7.61018 -6.20381 0 
8.02416 -6.22129 0 
8.44639 -6.25086 0 
8.88316 -6.18045 0 
9.32837 -6.23671 0 
9.74945 -6.28731 0 
10.2497 -6.2342 0 
10.6977 -6.33048 0 
11.1231 -6.18344 0 
11.5686 -6.24507 0 
12 -6.05498 0 
-12 -5.62855 0 
-11.5528 -5.71254 0 
-11.1136 -5.86776 0 
-10.6688 -5.75881 0 
-10.233 -5.86006 0 
-9.78567 -5.7725 0 
-9.33703 -5.8159 0 
-8.89196 -5.80129 0 
-8.46576 -5.83745 0 
-8.05498 -5.76771 0 
-7.65494 -5.84507 0 
-7.25565 -5.77702 0 
-6.84766 -5.84733 0 
-6.4322 -5.76674 0 
-6.00994 -5.82436 0 
-5.58892 -5.78446 0 
-5.17532 -5.7288 0 
-4.76204 -5.77793 0 
-4.36259 -5.71893 0 
-3.97082 -5.75501 0 
-3.58819 -5.72302 0 
-3.2094 -5.7733 0 
-2.83434 -5.76991 0 
-2.491 -5.81933 0 
-2.18355 -5.86929 0 
-1.87398 -5.86715 0 
-1.57376 -6.04508 0 
-1.36463 -6.29588 0 
-0.638758 -7.20038 0 
0.279041 -7.15269 0 
0.690982 -7.11751 0 
1.41114 -6.3371 0 
1.6267 -6.03603 0 
1.93152 -5.82851 0 
2.19575 -5.88036 0 
2.48457 -5.81278 0 
2.82957 -5.77247 0 
3.17172 -5.75417 0 
3.56477 -5.70109 0 
3.95271 -5.75271 0 
4.36075 -5.82873 0 
4.78613 -5.7672 0 
5.20922 -5.82552 0 
5.61805 -5.79535 0 
6.03373 -5.80506 0 
6.45422 -5.77856 0 
6.87137 -5.79633 0 
7.29235 -5.78277 0 
7.71397 -5.76164 0 
8.13485 -5.7909 0 
8.54513 -5.80908 0 
9.02399 -5.77559 0 
9.44457 -5.79641 0 
9.88843 -5.8973 0 
10.2759 -5.73449 0 
10.6607 -5.8948 0 
11.0846 -5.74169 0 
11.5396 -5.81419 0 
12 -5.62854 0 
-12 -5.21377 0 
-11.5457 -5.27808 0 
-11.1019 -5.43431 0 
-10.652 -5.3231 0 
-10.209 -5.43103 0 
-9.7728 -5.3264 0 
-9.34613 -5.39159 0 
-8.92274 -5.35685 0 
-8.49951 -5.39163 0 
-8.08043 -5.32542 0 
-7.65928 -5.38404 0 
-7.24308 -5.33358 0 
-6.83231 -5.40446 0 
-6.41848 -5.3246 0 
-6.00385 -5.39509 0 
-5.58653 -5.34707 0 
-5.19123 -5.2657 0 
-4.79928 -5.3378 0 
-4.39531 -5.27865 0 
-3.99362 -5.30278 0 
-3.58515 -5.30337 0 
-3.19315 -5.33838 0 
-2.84406 -5.32456 0 
-2.51327 -5.38152 0 
-2.19481 -5.42206 0 
-1.92214 -5.4967 0 
-1.66667 -5.65715 0 
1.67868 -5.65739 0 
1.90802 -5.46727 0 
2.20795 -5.40622 0 
2.53404 -5.37823 0 
2.8608 -5.31694 0 
3.22401 -5.33093 0 
3.62183 -5.27167 0 
4.01697 -5.32197 0 
4.40441 -5.40832 0 
4.73687 -5.25313 0 
5.09942 -5.38715 0 
5.50206 -5.35998 0 
5.92087 -5.3666 0 
6.33127 -5.3571 0 
6.76332 -5.35828 0 
7.17608 -5.35602 0 
7.59798 -5.33692 0 
8.03591 -5.34959 0 
8.45314 -5.35297 0 
8.86819 -5.40592 0 
9.35602 -5.34718 0 
9.79864 -5.45514 0 
10.2282 -5.30633 0 
10.6863 -5.42676 0 
11.116 -5.29177 0 
11.5444 -5.3983 0 
12 -5.21375 0 
-12 -4.80613 0 
-11.5458 -4.85633 0 
-11.091 -5.01061 0 
-10.6518 -4.88317 0 
-10.2186 -5.00398 0 
-9.78663 -4.88895 0 
-9.35129 -4.94972 0 
-8.92201 -4.92028 0 
-8.49699 -4.94905 0 
-8.07862 -4.88341 0 
-7.66056 -4.94564 0 
-7.24473 -4.89673 0 
-6.82602 -4.96418 0 
-6.41459 -4.87883 0 
-6.00897 -4.96218 0 
-5.60224 -4.90175 0 
-5.16239 -4.85308 0 
-4.72874 -4.89517 0 
-4.29921 -4.85324 0 
-3.87968 -4.89764 0 
-3.46093 -4.90183 0 
-3.0934 -4.89371 0 
-2.72918 -4.91145 0 
-2.40197 -4.95168 0 
-2.10809 -4.98139 0 
-1.85694 -5.11228 0 
1.85236 -5.10734 0 
2.09735 -4.99136 0 
2.3978 -4.95381 0 
2.73071 -4.89792 0 
3.09184 -4.90352 0 
3.46045 -4.88621 0 
3.89684 -4.88213 0 
4.30491 -4.93522 0 
4.75552 -4.854 0 
5.18987 -4.93443 0 
5.6113 -4.93279 0 
6.01981 -4.92568 0 
6.44793 -4.9427 0 
6.86154 -4.92032 0 
7.27549 -4.92338 0 
7.71552 -4.92677 0 
8.12986 -4.90925 0 
8.54737 -4.91803 0 
8.98682 -5.01556 0 
9.38465 -4.87243 0 
9.7737 -5.02885 0 
10.1992 -4.87155 0 
10.6451 -5.00442 0 
11.101 -4.87571 0 
11.5554 -4.97683 0 
12 -4.80611 0 
-12 -4.4025 0 
-11.5612 -4.43771 0 
-11.1061 -4.59144 0 
-10.6637 -4.45942 0 
-10.2137 -4.57487 0 
-9.79491 -4.43957 0 
-9.37822 -4.51979 0 
-8.94718 -4.49335 0 
-8.51449 -4.51131 0 
-8.09892 -4.44521 0 
-7.6792 -4.50884 0 
-7.26208 -4.46527 0 
-6.84419 -4.5307 0 
-6.419 -4.46186 0 
-5.98013 -4.52362 0 
-5.549 -4.48821 0 
-5.14148 -4.41686 0 
-4.73435 -4.48767 0 
-4.37405 -4.37822 0 
-4.00749 -4.48091 0 
-3.60954 -4.5044 0 
-3.22683 -4.46193 0 
-2.87067 -4.48907 0 
-2.53772 -4.50093 0 
-2.23678 -4.49524 0 
-1.94659 -4.55214 0 
1.94347 -4.55023 0 
2.23407 -4.49522 0 
2.53492 -4.50419 0 
2.8661 -4.47667 0 
3.20001 -4.46049 0 
3.59462 -4.50454 0 
4.00398 -4.47667 0 
4.40033 -4.52731 0 
4.77612 -4.39212 0 
5.15113 -4.50934 0 
5.55449 -4.51173 0 
5.97216 -4.49001 0 
6.38113 -4.52424 0 
6.79781 -4.49283 0 
7.21205 -4.49156 0 
7.62721 -4.52075 0 
8.05941 -4.47619 0 
8.47699 -4.48134 0 
[...]
POINT_DATA 2211 
VECTORS vectors float
0 0 1 
5.9479e-07 0.00113328 0.999999 
5.58681e-07 0.00224286 0.999997 
5.26109e-07 0.0033773 0.999994 
5.01579e-07 0.00457567 0.99999 
4.84608e-07 0.0058498 0.999983 
4.73681e-07 0.00724158 0.999974 
4.67163e-07 0.00877476 0.999962 
4.63553e-07 0.0104768 0.999945 
4.61676e-07 0.0123747 0.999923 
4.60722e-07 0.014512 0.999895 
4.60169e-07 0.0169574 0.999856 
4.59965e-07 0.0199031 0.999802 
4.59562e-07 0.0228635 0.999739 
4.58979e-07 0.0266687 0.999644 
4.58219e-07 0.0314852 0.999504 
4.56905e-07 0.0376897 0.999289 
4.54719e-07 0.0466356 0.998912 
4.51293e-07 0.0597626 0.998213 
4.45884e-07 0.0792791 0.996852 
4.37454e-07 0.108575 0.994088 
4.24648e-07 0.151947 0.988389 
4.05668e-07 0.21497 0.976621 
3.77988e-07 0.30362 0.952793 
4.80976e-07 0.424381 0.905484 
-6.15842e-07 0.584174 0.811629 
4.46894e-07 0.723735 0.690078 
-1.27724e-06 0.851696 0.524035 
4.61348e-05 0.9598 0.280686 
1.76498e-06 0.999989 -0.00459842 
-4.62622e-05 0.95925 -0.28256 
1.22059e-06 0.853636 -0.52087 
-4.46103e-07 0.725928 -0.687771 
6.52371e-07 0.585197 -0.810891 
-4.79391e-07 0.428648 -0.903472 
-7.53058e-07 0.306917 -0.951736 
-4.04728e-07 0.21667 -0.976245 
-4.2425e-07 0.152906 -0.988241 
-4.37565e-07 0.109228 -0.994017 
-4.45929e-07 0.0807093 -0.996738 
-4.50877e-07 0.060238 -0.998184 
-4.5455e-07 0.0467719 -0.998906 
-4.56766e-07 0.0376495 -0.999291 
-4.58103e-07 0.0311295 -0.999515 
-4.58942e-07 0.0262489 -0.999655 
-4.59485e-07 0.0223857 -0.999749 
-4.59883e-07 0.0192069 -0.999816 
-4.6026e-07 0.0165185 -0.999864 
-4.60789e-07 0.0141997 -0.999899 
-4.61727e-07 0.012155 -0.999926 
-4.63586e-07 0.010328 -0.999947 
-4.67184e-07 0.00869383 -0.999962 
-4.73704e-07 0.00720447 -0.999974 
-4.8463e-07 0.00583657 -0.999983 
-5.01597e-07 0.00457535 -0.99999 
-5.26047e-07 0.00338491 -0.999994 
-5.58672e-07 0.00224489 -0.999997 
-5.9485e-07 0.00113915 -0.999999 
0 1.22465e-16 -1 
0 0 1 
1.42507e-07 0.000774235 1 
1.48002e-07 0.0018363 0.999998 
1.43675e-07 0.00283557 0.999996 
1.46651e-07 0.00397374 0.999992 
1.12001e-07 0.00513793 0.999987 
1.16542e-07 0.00642164 0.999979 
1.16699e-07 0.00786212 0.999969 
1.2838e-07 0.00947675 0.999955 
1.25907e-07 0.0112752 0.999936 
1.40851e-07 0.0133267 0.999911 
2.10706e-07 0.0155943 0.999878 
1.50104e-07 0.0182164 0.999834 
1.52017e-07 0.0213863 0.999771 
1.58586e-07 0.0255243 0.999674 
1.61869e-07 0.0306166 0.999531 
1.31387e-07 0.0370782 0.999312 
-1.24364e-07 0.0475292 0.99887 
-1.48478e-07 0.0624927 0.998045 
-3.79424e-07 0.085627 0.996327 
-5.01864e-07 0.119909 0.992785 
-1.19806e-06 0.170671 0.985328 
-3.53709e-07 0.241834 0.970318 
-6.90116e-07 0.340092 0.940392 
-9.03613e-07 0.463528 0.886082 
-1.44933e-05 0.616509 0.787348 
-1.46255e-05 0.735873 0.67712 
-3.04449e-05 0.883942 0.467596 
-1.78448e-06 0.959676 0.281108 
-5.1159e-07 0.999882 0.0153822 
1.9885e-06 0.962012 -0.273006 
2.26473e-05 0.868337 -0.495975 
1.46378e-05 0.73461 -0.678489 
1.50189e-05 0.617854 -0.786293 
9.34422e-07 0.462659 -0.886536 
7.32671e-07 0.337149 -0.941451 
4.04973e-07 0.236714 -0.971579 
8.69675e-07 0.164453 -0.986385 
3.37815e-07 0.115595 -0.993296 
2.10141e-07 0.0812422 -0.996694 
1.59644e-07 0.0598115 -0.99821 
-1.07238e-07 0.0451418 -0.998981 
-1.57813e-07 0.0355706 -0.999367 
-1.60792e-07 0.0288158 -0.999585 
-1.48812e-07 0.0239778 -0.999712 
-1.28355e-07 0.0202521 -0.999795 
-1.07073e-07 0.0172457 -0.999851 
-1.93367e-07 0.0147532 -0.999891 
-1.30459e-07 0.0126165 -0.99992 
-1.66916e-07 0.0107118 -0.999943 
-1.28367e-07 0.00902032 -0.999959 
-1.21464e-07 0.00756618 -0.999971 
-1.16129e-07 0.00617668 -0.999981 
-2.07299e-07 0.0049416 -0.999988 
-1.43208e-07 0.00382986 -0.999993 
-1.51321e-07 0.00271414 -0.999996 
-1.36951e-07 0.00172454 -0.999999 
-1.37292e-07 0.000788187 -1 
0 1.22465e-16 -1 
0 0 1 
1.21654e-07 0.000742907 1 
1.91899e-07 0.00152801 0.999999 
1.16539e-07 0.00243622 0.999997 
1.89503e-07 0.00349774 0.999994 
1.98479e-07 0.00457569 0.99999 
1.67879e-07 0.00576374 0.999983 
1.39594e-07 0.00711263 0.999975 
1.53583e-07 0.00861338 0.999963 
1.83547e-07 0.010349 0.999946 
1.46643e-07 0.0122536 0.999925 
1.85992e-07 0.0144565 0.999895 
1.34094e-07 0.0169538 0.999856 
1.23287e-07 0.0199965 0.9998 
1.16977e-07 0.0242129 0.999707 
1.30346e-07 0.0291858 0.999574 
-1.93608e-07 0.0362724 0.999342 
-1.85272e-07 0.0471089 0.99889 
-1.16466e-07 0.0634036 0.997988 
-3.52607e-07 0.0893401 0.996001 
-9.03051e-07 0.12818 0.991751 
-1.22059e-06 0.185585 0.982628 
-6.92972e-07 0.26623 0.963909 
-1.21574e-06 0.367674 0.929955 
-1.23363e-05 0.50203 0.86485 
-2.59128e-05 0.681315 0.731991 
-3.82301e-05 0.797446 0.603391 
-3.80725e-05 0.918243 0.396018 
-1.79172e-05 0.982707 0.18517 
1.46933e-06 0.999182 -0.0404319 
2.06935e-05 0.961851 -0.273573 
3.85946e-05 0.921688 -0.387933 
3.79063e-05 0.79298 -0.609248 
2.71923e-05 0.70312 -0.711072 
1.27741e-05 0.514906 -0.857247 
1.20387e-06 0.376206 -0.926536 
6.45992e-07 0.286143 -0.958187 
7.21534e-07 0.199103 -0.979979 
1.17563e-06 0.13751 -0.9905 
2.64396e-07 0.0954015 -0.995439 
1.44672e-07 0.0674578 -0.997722 
3.80766e-07 0.0490558 -0.998796 
1.25809e-07 0.0374535 -0.999298 
-1.16909e-07 0.0296374 -0.999561 
-1.11385e-07 0.0241463 -0.999708 
-2.10488e-07 0.0201667 -0.999797 
-1.7654e-07 0.0170494 -0.999855 
-1.89658e-07 0.0144884 -0.999895 
-1.68182e-07 0.012352 -0.999924 
-1.92028e-07 0.0105058 -0.999945 
-2.03748e-07 0.0088146 -0.999961 
-1.79669e-07 0.0073007 -0.999973 
-2.11725e-07 0.00606019 -0.999982 
-1.66011e-07 0.00478112 -0.999989 
-1.8465e-07 0.00369046 -0.999993 
-2.05029e-07 0.0027239 -0.999996 
-2.0279e-07 0.00165668 -0.999999 
-1.16922e-07 0.000803041 -1 
0 1.22465e-16 -1 
0 0 1 
9.67155e-08 0.000773895 1 
1.73504e-07 0.00156964 0.999999 
1.77283e-07 0.00243716 0.999997 
1.31388e-07 0.00341212 0.999994 
1.72718e-07 0.00441286 0.99999 
1.55658e-07 0.00562207 0.999984 
1.22951e-07 0.00692265 0.999976 
1.30957e-07 0.0084477 0.999964 
1.71536e-07 0.0100517 0.999949 
1.86237e-07 0.0120809 0.999927 
2.12957e-07 0.0140162 0.999902 
1.70699e-07 0.01683 0.999858 
1.07464e-07 0.0196472 0.999807 
1.27015e-07 0.0235104 0.999724 
1.07074e-07 0.0285822 0.999591 
-1.77255e-07 0.0365356 0.999332 
-3.68363e-07 0.0487693 0.99881 
-3.42258e-07 0.068834 0.997628 
-4.2886e-07 0.100186 0.994969 
-1.33556e-06 0.150453 0.988617 
-5.73731e-07 0.220885 0.9753 
-9.3824e-07 0.32323 0.946321 
-1.22102e-05 0.445957 0.895054 
-2.04947e-05 0.585288 0.810825 
-3.86528e-05 0.77137 0.636387 
-3.72826e-05 0.84865 0.528954 
-5.38354e-05 0.957013 0.290044 
-3.05069e-05 0.9708 0.239889 
-7.29183e-07 0.999992 0.00409634 
2.25281e-05 0.989536 -0.144283 
4.2802e-05 0.933946 -0.357413 
4.935e-05 0.864809 -0.502101 
3.78485e-05 0.754708 -0.656061 
2.00976e-05 0.579629 -0.814881 
1.27509e-05 0.46154 -0.887119 
1.02583e-06 0.330067 -0.943957 
4.75273e-07 0.225827 -0.974167 
1.40837e-06 0.153047 -0.988219 
4.88524e-07 0.101398 -0.994846 
1.16274e-07 0.0683314 -0.997663 
1.49028e-07 0.048923 -0.998803 
1.26939e-07 0.0360941 -0.999348 
-1.12646e-07 0.0281314 -0.999604 
-2.08518e-07 0.022696 -0.999742 
-2.10289e-07 0.0188749 -0.999822 
-1.55971e-07 0.0158684 -0.999874 
-1.15354e-07 0.0134397 -0.99991 
-1.06805e-07 0.0114463 -0.999934 
-1.78471e-07 0.00970881 -0.999953 
-1.99986e-07 0.00808159 -0.999967 
-1.62268e-07 0.00671128 -0.999977 
-1.84723e-07 0.00552029 -0.999985 
-1.57206e-07 0.00427817 -0.999991 
-2.09901e-07 0.00328106 -0.999995 
-1.78971e-07 0.00237196 -0.999997 
-1.76088e-07 0.00153286 -0.999999 
-9.54192e-08 0.000776358 -1 
0 1.22465e-16 -1 
0 0 1 
6.32804e-08 0.000779791 1 
1.63662e-07 0.00157563 0.999999 
1.89761e-07 0.00238945 0.999997 
1.07682e-07 0.00327839 0.999995 
1.89361e-07 0.00426209 0.999991 
1.20792e-07 0.00533498 0.999986 
2.06097e-07 0.00659121 0.999978 
1.19723e-07 0.00800514 0.999968 
1.73164e-07 0.00952127 0.999955 
2.1315e-07 0.0114222 0.999935 
2.00633e-07 0.0134464 0.99991 
2.0384e-07 0.0160177 0.999872 
1.07591e-07 0.0189609 0.99982 
1.18395e-07 0.0231042 0.999733 
-1.37693e-07 0.0289361 0.999581 
-1.17255e-07 0.0380972 0.999274 
-1.53671e-07 0.0520218 0.998646 
-2.2096e-07 0.0755601 0.997141 
-5.70903e-07 0.111463 0.993769 
-1.70923e-06 0.170361 0.985382 
-6.16367e-07 0.254684 0.967024 
-1.37192e-06 0.37662 0.926368 
-1.68914e-05 0.517494 0.855687 
-2.88635e-05 0.684072 0.729415 
-4.72392e-05 0.875236 0.483695 
-1.0372e-05 0.955238 0.29584 
-3.1974e-05 0.999977 0.00680128 
-3.18035e-05 0.994864 0.101221 
-1.45067e-06 0.997186 0.0749631 
3.059e-05 0.980906 -0.194485 
4.74403e-05 0.998653 -0.0518842 
5.40932e-05 0.956146 -0.29289 
4.71945e-05 0.894542 -0.446985 
2.85497e-05 0.699378 -0.714752 
1.67153e-05 0.524868 -0.851184 
1.41478e-06 0.386352 -0.922351 
6.1995e-07 0.259442 -0.965759 
1.92992e-06 0.184795 -0.982777 
6.20369e-07 0.12329 -0.992371 
3.10871e-07 0.0824528 -0.996595 
2.11241e-07 0.0558154 -0.998441 
1.48029e-07 0.0400857 -0.999196 
1.21639e-07 0.0299465 -0.999552 
2.03035e-07 0.0237684 -0.999717 
-1.72551e-07 0.0193687 -0.999812 
-2.07359e-07 0.0162108 -0.999869 
-1.50913e-07 0.0136599 -0.999907 
-1.66201e-07 0.0115555 -0.999933 
-1.89021e-07 0.00981331 -0.999952 
-1.46475e-07 0.00827107 -0.999966 
-1.96322e-07 0.00682435 -0.999977 
-1.26266e-07 0.00556888 -0.999984 
-1.41106e-07 0.00450556 -0.99999 
-1.93742e-07 0.00331613 -0.999995 
-1.94959e-07 0.00241824 -0.999997 
-1.35374e-07 0.00158218 -0.999999 
-5.08832e-08 0.000769626 -1 
0 1.22465e-16 -1 
0 0 1 
3.69975e-08 0.00077343 1 
1.07543e-07 0.00155974 0.999999 
1.25849e-07 0.00239099 0.999997 
2.01721e-07 0.00328342 0.999995 
1.7201e-07 0.00425224 0.999991 
1.83886e-07 0.0054348 0.999985 
1.83137e-07 0.00661385 0.999978 
1.84614e-07 0.00806852 0.999967 
1.65235e-07 0.00948261 0.999955 
1.07846e-07 0.0111712 0.999938 
1.49402e-07 0.0130852 0.999914 
1.69458e-07 0.01551 0.99988 
1.23114e-07 0.0185879 0.999827 
-1.39976e-07 0.0229324 0.999737 
-1.23099e-07 0.029394 0.999568 
-1.86354e-07 0.0396461 0.999214 
-1.91787e-07 0.0557891 0.998443 
-2.47718e-07 0.0829192 0.996556 
-6.64239e-07 0.124182 0.992259 
-2.0084e-06 0.192205 0.981355 
-4.5541e-07 0.289899 0.957057 
-1.81537e-06 0.436958 0.899482 
-2.10754e-05 0.611461 0.791275 
-4.30188e-05 0.786895 0.617086 
-4.27463e-05 0.95308 0.302717 
-4.36221e-05 0.999422 0.0340002 
-1.98127e-05 0.99819 -0.0601309 
-3.22346e-05 0.986221 0.165431 
5.26074e-07 0.997813 -0.0661017 
3.49987e-05 0.985887 -0.167412 
2.60115e-05 0.999775 0.0211993 
4.47243e-05 0.998719 -0.0505973 
4.92538e-05 0.948518 -0.316724 
3.46159e-05 0.78764 -0.616135 
2.09252e-05 0.624412 -0.781095 
1.64237e-06 0.444591 -0.895734 
7.11351e-07 0.307045 -0.951695 
1.83628e-06 0.201009 -0.979589 
1.00407e-06 0.126672 -0.991945 
3.47865e-07 0.0816206 -0.996663 
1.61615e-07 0.0545714 -0.99851 
1.88039e-07 0.0382333 -0.999269 
1.88116e-07 0.0288039 -0.999585 
1.25647e-07 0.0226275 -0.999744 
-1.95525e-07 0.0183978 -0.999831 
-1.2647e-07 0.0153443 -0.999882 
-1.24418e-07 0.0129246 -0.999916 
-1.1361e-07 0.0109253 -0.99994 
-1.96625e-07 0.00923742 -0.999957 
-1.77977e-07 0.00779975 -0.99997 
-1.09202e-07 0.00631256 -0.99998 
-1.26492e-07 0.00517314 -0.999987 
-1.96975e-07 0.00413594 -0.999991 
-1.34001e-07 0.00323307 -0.999995 
-1.33546e-07 0.00244939 -0.999997 
-7.58145e-08 0.001632 -0.999999 
-4.1594e-08 0.000810165 -1 
0 1.22465e-16 -1 
0 0 1 
-5.2099e-09 0.000783796 1 
3.37161e-08 0.00157116 0.999999 
-4.28654e-09 0.00241266 0.999997 
5.70671e-08 0.00330792 0.999995 
8.69914e-09 0.00427306 0.999991 
1.02673e-07 0.00533754 0.999986 
6.0101e-08 0.00649761 0.999979 
1.7585e-07 0.00783046 0.999969 
1.73261e-07 0.00930831 0.999957 
2.00714e-07 0.0110407 0.999939 
1.51553e-07 0.0130588 0.999915 
1.70852e-07 0.0155104 0.99988 
-1.40912e-07 0.0187162 0.999825 
-1.16906e-07 0.0231803 0.999731 
-1.37368e-07 0.0300923 0.999547 
-1.51214e-07 0.0407411 0.99917 
-7.3309e-07 0.0574522 0.998348 
-1.37983e-07 0.0873112 0.996181 
-7.42056e-07 0.134725 0.990883 
-1.27621e-06 0.217807 0.975992 
-8.1086e-07 0.339173 0.940724 
-1.31853e-06 0.508882 0.860836 
-1.95509e-05 0.701804 0.71237 
-4.31331e-05 0.895043 0.445981 
-3.93446e-05 0.991861 0.127326 
-1.63647e-05 0.983387 -0.181521 
1.46362e-05 0.977824 0.209426 
2.96113e-05 0.998135 -0.0610393 
4.91738e-05 0.897833 -0.440335 
1.91423e-05 0.69463 -0.719367 
1.38929e-06 0.501601 -0.865099 
5.33411e-07 0.330297 -0.943877 
1.38428e-06 0.20952 -0.977804 
4.24435e-07 0.131787 -0.991278 
2.15843e-07 0.0843323 -0.996438 
2.02113e-07 0.0613344 -0.998117 
1.45751e-07 0.0436876 -0.999045 
1.78369e-07 0.0319502 -0.999489 
1.17079e-07 0.0243838 -0.999703 
1.13075e-07 0.0195815 -0.999808 
1.38233e-07 0.0160528 -0.999871 
1.10077e-07 0.0135001 -0.999909 
-1.07831e-08 0.0113917 -0.999935 
-9.34753e-08 0.00955803 -0.999954 
-1.10237e-07 0.00805191 -0.999968 
-5.94898e-08 0.00674173 -0.999977 
-9.52579e-09 0.00533194 -0.999986 
-1.0131e-07 0.00427678 -0.999991 
-3.85285e-09 0.003315 -0.999995 
-4.28038e-08 0.00238374 -0.999997 
9.94392e-09 0.00156899 -0.999999 
3.45976e-09 0.000798012 -1 
0 1.22465e-16 -1 
0 0 1 
-3.22131e-08 0.000786907 1 
-5.69651e-08 0.00159375 0.999999 
-1.07713e-07 0.0024213 0.999997 
-9.29888e-08 0.00329276 0.999995 
-1.6647e-07 0.00425368 0.999991 
-1.4805e-07 0.005324 0.999986 
-1.94153e-07 0.00651331 0.999979 
-8.77618e-08 0.00782261 0.999969 
-1.59606e-07 0.00932643 0.999957 
-1.45817e-07 0.0110259 0.999939 
-1.53869e-07 0.013075 0.999915 
-1.13621e-07 0.0155915 0.999878 
-1.62332e-07 0.01888 0.999822 
-1.54015e-07 0.0233958 0.999726 
-1.43423e-07 0.0305103 0.999534 
-1.82215e-07 0.0433089 0.999062 
-3.28954e-07 0.0646394 0.997909 
-2.62578e-07 0.10279 0.994703 
-8.16675e-07 0.167008 0.985956 
-3.39354e-07 0.276174 0.961108 
-8.86012e-07 0.429841 0.902904 
-1.30813e-05 0.644031 0.764999 
-2.58703e-05 0.859968 0.510348 
-2.93307e-05 0.991551 0.129714 
-1.58836e-05 0.9729 -0.231227 
1.23227e-05 0.967604 0.252472 
2.73694e-05 0.994051 -0.108918 
2.48697e-05 0.864411 -0.502785 
1.2654e-05 0.646265 -0.763113 
8.37527e-07 0.43 -0.902829 
3.30771e-07 0.276702 -0.960956 
7.77055e-07 0.163899 -0.986477 
2.66732e-07 0.10086 -0.994901 
1.82922e-07 0.063188 -0.998002 
1.80122e-07 0.0417668 -0.999127 
1.12666e-07 0.0302049 -0.999544 
1.19644e-07 0.023327 -0.999728 
1.53198e-07 0.018659 -0.999826 
1.62875e-07 0.0154644 -0.99988 
1.48389e-07 0.0130083 -0.999915 
1.15102e-07 0.0108903 -0.999941 
1.78706e-07 0.00920798 -0.999958 
1.35393e-07 0.00774208 -0.99997 
1.42225e-07 0.00643638 -0.999979 
1.87646e-07 0.00530837 -0.999986 
1.21848e-07 0.00433141 -0.999991 
1.4517e-07 0.00338239 -0.999994 
6.12401e-08 0.00246478 -0.999997 
6.15249e-08 0.00160051 -0.999999 
3.94589e-08 0.000780364 -1 
0 1.22465e-16 -1 
0 0 1 
-4.74244e-08 0.000766443 1 
-8.99462e-08 0.00157767 0.999999 
-1.76891e-07 0.00241849 0.999997 
-2.05051e-07 0.00332611 0.999994 
-1.96791e-07 0.00426731 0.999991 
-1.35052e-07 0.00528828 0.999986 
-1.88694e-07 0.00651692 0.999979 
-1.38935e-07 0.00777991 0.99997 
-1.83974e-07 0.0093725 0.999956 
-1.17903e-07 0.0109803 0.99994 
-1.19034e-07 0.0131003 0.999914 
-1.73715e-07 0.0156151 0.999878 
-1.11108e-07 0.0190642 0.999818 
-1.17175e-07 0.0240395 0.999711 
-1.18796e-07 0.0322792 0.999479 
-1.20156e-07 0.0452502 0.998976 
-2.04395e-07 0.0661247 0.997811 
-3.85013e-07 0.0982451 0.995162 
-2.44519e-07 0.150336 0.988635 
-8.337e-07 0.243832 0.969818 
-2.19844e-06 0.38858 0.921415 
-7.27248e-07 0.59073 0.806869 
-1.65989e-06 0.822213 0.56918 
-1.79056e-05 0.983586 0.180438 
-8.93358e-07 0.950821 -0.309741 
8.0666e-07 0.949265 0.314476 
1.73224e-05 0.984428 -0.175786 
1.58604e-06 0.824297 -0.566158 
6.72338e-07 0.594446 -0.804136 
2.20505e-06 0.400605 -0.916251 
8.15603e-07 0.247567 -0.968871 
2.49201e-07 0.149913 -0.988699 
3.57897e-07 0.0947976 -0.995497 
2.08955e-07 0.0637233 -0.997968 
1.83286e-07 0.044666 -0.999002 
1.22085e-07 0.0321157 -0.999484 
1.93146e-07 0.0242455 -0.999706 
1.096e-07 0.0195702 -0.999808 
2.03327e-07 0.0160571 -0.999871 
1.79908e-07 0.0134611 -0.999909 
1.23368e-07 0.0113629 -0.999935 
1.19204e-07 0.0095371 -0.999955 
2.09613e-07 0.00796713 -0.999968 
1.64559e-07 0.00663512 -0.999978 
1.76628e-07 0.00540838 -0.999985 
1.53812e-07 0.00426763 -0.999991 
1.94195e-07 0.00327848 -0.999995 
1.39225e-07 0.00243025 -0.999997 
1.0343e-07 0.00162621 -0.999999 
6.05519e-08 0.000816831 -1 
0 1.22465e-16 -1 
0 0 1 
-5.75787e-08 0.000785087 1 
-1.2733e-07 0.00155127 0.999999 
-1.90168e-07 0.00235816 0.999997 
-2.03335e-07 0.00326079 0.999995 
-1.36951e-07 0.00430284 0.999991 
-1.72415e-07 0.00545687 0.999985 
-1.91585e-07 0.00673947 0.999977 
-1.93637e-07 0.00807938 0.999967 
-1.15117e-07 0.0097635 0.999952 
-1.07797e-07 0.0115692 0.999933 
-1.22517e-07 0.0135825 0.999908 
-1.78014e-07 0.0158909 0.999874 
-1.98268e-07 0.019113 0.999817 
-1.08949e-07 0.023562 0.999722 
-1.49466e-07 0.0306269 0.999531 
1.07167e-07 0.0418076 0.999126 
-1.23595e-07 0.0620334 0.998074 
3.81614e-07 0.0956645 0.995414 
2.11269e-07 0.154856 0.987937 
1.16945e-07 0.238005 0.971264 
2.69374e-07 0.363905 0.931436 
1.60986e-07 0.549533 0.835472 
1.50658e-07 0.777198 0.629256 
4.47379e-07 0.964079 0.265615 
3.23478e-07 0.959051 -0.283234 
-7.75285e-07 0.958967 0.283519 
-1.474e-06 0.963739 -0.266846 
-1.19912e-07 0.783964 -0.620807 
-7.83575e-07 0.569681 -0.821866 
-1.2642e-07 0.376891 -0.926258 
-3.55374e-07 0.244691 -0.969601 
-1.60464e-07 0.15707 -0.987587 
1.44538e-07 0.100706 -0.994916 
-1.53043e-07 0.0644321 -0.997922 
1.33539e-07 0.0436856 -0.999045 
-1.72072e-07 0.0314057 -0.999507 
1.18856e-07 0.0241915 -0.999707 
1.66821e-07 0.0192403 -0.999815 
1.20651e-07 0.0159561 -0.999873 
1.77213e-07 0.0134164 -0.99991 
1.22331e-07 0.011305 -0.999936 
1.08607e-07 0.0095752 -0.999954 
1.54348e-07 0.00801212 -0.999968 
2.02147e-07 0.00664477 -0.999978 
1.46238e-07 0.00540781 -0.999985 
1.30108e-07 0.00430202 -0.999991 
1.61994e-07 0.00338928 -0.999994 
1.71461e-07 0.00245983 -0.999997 
1.26518e-07 0.00161369 -0.999999 
5.11381e-08 0.000805642 -1 
0 1.22465e-16 -1 
0 0 1 
-8.05989e-08 0.000804146 1 
-1.60937e-07 0.00159393 0.999999 
-1.99576e-07 0.0024465 0.999997 
-1.9933e-07 0.003302 0.999995 
-1.35437e-07 0.00423271 0.999991 
-2.08343e-07 0.00532372 0.999986 
-1.75361e-07 0.00657294 0.999978 
-1.20685e-07 0.00796908 0.999968 
-2.09767e-07 0.00950593 0.999955 
-1.59812e-07 0.0113877 0.999935 
-1.84265e-07 0.0136839 0.999906 
-1.53873e-07 0.0164135 0.999865 
-1.85467e-07 0.020098 0.999798 
-1.38104e-07 0.0248384 0.999691 
1.55569e-07 0.0320614 0.999486 
1.18452e-07 0.0432472 0.999064 
3.31193e-07 0.0608494 0.998147 
1.12454e-07 0.0927598 0.995689 
3.3162e-07 0.147815 0.989015 
9.2185e-07 0.241742 0.97034 
3.39257e-07 0.387156 0.922014 
7.81588e-07 0.586627 0.809857 
1.64985e-06 0.811827 0.583898 
1.78118e-05 0.981817 0.189828 
9.38075e-07 0.953251 -0.302179 
-9.22486e-07 0.953754 0.300587 
-1.83842e-05 0.981486 -0.191534 
-1.88459e-06 0.805537 -0.592545 
-7.66901e-07 0.570636 -0.821203 
-7.42229e-07 0.375538 -0.926807 
-9.87592e-07 0.238132 -0.971233 
-2.94092e-07 0.14672 -0.989178 
-1.37406e-07 0.0928773 -0.995678 
-3.82476e-07 0.0593038 -0.99824 
-2.07203e-07 0.0409476 -0.999161 
-1.83988e-07 0.0302718 -0.999542 
1.48229e-07 0.0234059 -0.999726 
1.41585e-07 0.0189549 -0.99982 
1.19834e-07 0.0157329 -0.999876 
1.74009e-07 0.0131977 -0.999913 
1.16309e-07 0.0112303 -0.999937 
1.45947e-07 0.00942655 -0.999956 
1.98237e-07 0.00796317 -0.999968 
1.87736e-07 0.0066011 -0.999978 
1.27459e-07 0.00553687 -0.999985 
1.35333e-07 0.00446569 -0.99999 
1.96644e-07 0.00345149 -0.999994 
1.90716e-07 0.00248997 -0.999997 
1.2535e-07 0.00163967 -0.999999 
5.46775e-08 0.000809623 -1 
0 1.22465e-16 -1 
0 0 1 
-7.82052e-08 0.000807938 1 
-1.56694e-07 0.00162558 0.999999 
-1.48895e-07 0.00244531 0.999997 
-1.87839e-07 0.00330972 0.999995 
-1.84985e-07 0.00438006 0.99999 
-1.20329e-07 0.00551307 0.999985 
-1.46831e-07 0.00674351 0.999977 
-1.15075e-07 0.00820014 0.999966 
-1.54368e-07 0.00989345 0.999951 
-2.05802e-07 0.0117836 0.999931 
-1.31682e-07 0.0140624 0.999901 