# vtk DataFile Version 3.0 
Exported using Morpho https://github.com/Morpho-lang/morpho 
ASCII 
DATASET UNSTRUCTURED_GRID 

POINTS 8617 float 
-12 -8 0 
-11.4685 -8 0 
-10.968 -8 0 
-10.4991 -8 0 
-10.055 -8 0 
-9.62855 -8 0 
-9.21377 -8 0 
-8.80613 -8 0 
-8.4025 -8 0 
-8.00093 -8 0 
-7.60032 -8 0 
-7.2001 -8 0 
-6.80003 -8 0 
-6.40002 -8 0 
-6.00001 -8 0 
-5.60001 -8 0 
-5.20001 -8 0 
-4.80001 -8 0 
-4.40001 -8 0 
-4.00001 -8 0 
-3.60001 -8 0 
-3.19999 -8 0 
-2.79977 -8 0 
-2.39857 -8 0 
-1.99449 -8 0 
-1.58912 -7.81338 0 
-1.19016 -8 0 
-0.861316 -7.83589 0 
-0.413563 -8 0 
8.61313e-09 -8 0 
0.413563 -8 0 
0.856358 -7.83025 0 
1.19016 -8 0 
1.59638 -7.81293 0 
1.99449 -8 0 
2.39856 -8 0 
2.79977 -8 0 
3.19998 -8 0 
3.6 -8 0 
4 -8 0 
4.39999 -8 0 
4.79999 -8 0 
5.19999 -8 0 
5.59999 -8 0 
5.99999 -8 0 
6.39999 -8 0 
6.80001 -8 0 
7.20008 -8 0 
7.60029 -8 0 
8.00091 -8 0 
8.40248 -8 0 
8.80611 -8 0 
9.21375 -8 0 
9.62854 -8 0 
10.055 -8 0 
10.4991 -8 0 
10.9679 -8 0 
11.4685 -8 0 
12 -8 0 
-12 -7.46855 0 
-11.6144 -7.61176 0 
-11.099 -7.60148 0 
-10.6393 -7.5673 0 
-10.172 -7.56955 0 
-9.73216 -7.55012 0 
-9.30449 -7.54696 0 
-8.88229 -7.5544 0 
-8.45847 -7.54968 0 
-8.04715 -7.56211 0 
-7.62432 -7.55543 0 
-7.21907 -7.56577 0 
-6.79594 -7.5569 0 
-6.39057 -7.5529 0 
-5.96921 -7.57159 0 
-5.56106 -7.5636 0 
-5.15538 -7.54448 0 
-4.74212 -7.55426 0 
-4.34306 -7.53643 0 
-3.93425 -7.54487 0 
-3.53583 -7.53693 0 
-3.13317 -7.55127 0 
-2.7404 -7.5613 0 
-2.3415 -7.5815 0 
-1.96316 -7.57936 0 
-1.62292 -7.41273 0 
-1.24516 -7.60757 0 
-0.864384 -7.51839 0 
-0.455569 -7.7015 0 
-0.0222498 -7.73023 0 
0.441734 -7.70242 0 
0.907809 -7.525 0 
1.25778 -7.60054 0 
1.63287 -7.41686 0 
1.98026 -7.58555 0 
2.3669 -7.58445 0 
2.77418 -7.566 0 
3.18413 -7.54656 0 
3.58162 -7.54492 0 
3.99928 -7.54539 0 
4.40637 -7.53906 0 
4.82725 -7.55387 0 
5.23838 -7.54867 0 
5.66057 -7.55866 0 
6.07389 -7.55415 0 
6.48742 -7.55396 0 
6.89744 -7.54661 0 
7.30624 -7.54586 0 
7.71636 -7.55034 0 
8.13062 -7.5487 0 
8.54262 -7.53635 0 
8.94998 -7.54785 0 
9.37778 -7.54983 0 
9.79882 -7.53785 0 
10.2302 -7.56872 0 
10.6979 -7.57815 0 
11.1493 -7.5733 0 
11.6122 -7.6151 0 
12 -7.46854 0 
-12 -6.96795 0 
-11.6064 -7.09562 0 
-11.2131 -7.21681 0 
-10.7476 -7.12487 0 
-10.2929 -7.16019 0 
-9.8328 -7.10968 0 
-9.39708 -7.10053 0 
-8.96379 -7.10896 0 
-8.5374 -7.1171 0 
-8.1014 -7.11419 0 
-7.68818 -7.13353 0 
-7.25314 -7.11635 0 
-6.84819 -7.14266 0 
-6.41341 -7.11058 0 
-5.99769 -7.15034 0 
-5.57436 -7.12442 0 
-5.18322 -7.07831 0 
-4.7821 -7.1134 0 
-4.3709 -7.07438 0 
-3.96714 -7.09485 0 
-3.56061 -7.07576 0 
-3.16457 -7.10329 0 
-2.77145 -7.11135 0 
-2.3993 -7.15705 0 
-2.02546 -7.15619 0 
-1.66804 -7.05451 0 
-1.26807 -7.25289 0 
-1.01232 -7.13927 0 
-0.37838 -7.43303 0 
0.0782329 -7.47176 0 
0.549395 -7.43834 0 
0.933575 -7.22017 0 
1.30877 -7.22483 0 
1.65176 -7.03537 0 
2.00425 -7.16636 0 
2.38808 -7.16984 0 
2.7267 -7.09685 0 
3.09949 -7.11744 0 
3.49846 -7.07797 0 
3.89469 -7.11119 0 
4.30532 -7.08358 0 
4.71978 -7.11089 0 
5.12946 -7.09921 0 
5.54492 -7.12513 0 
5.96412 -7.11239 0 
6.3775 -7.11272 0 
6.78967 -7.10239 0 
7.20588 -7.0968 0 
7.6204 -7.10158 0 
8.03461 -7.10889 0 
8.45965 -7.09341 0 
8.89339 -7.08376 0 
9.30359 -7.12201 0 
9.75554 -7.08682 0 
10.2005 -7.11952 0 
10.6365 -7.17725 0 
11.1336 -7.12327 0 
11.5778 -7.1596 0 
12 -6.96795 0 
-12 -6.49908 0 
-11.5703 -6.61756 0 
-11.1501 -6.76478 0 
-10.7 -6.67579 0 
-10.2528 -6.73708 0 
-9.80388 -6.66586 0 
-9.35455 -6.66502 0 
-8.91927 -6.66966 0 
-8.47362 -6.69454 0 
-8.05181 -6.66928 0 
-7.62004 -6.71405 0 
-7.20186 -6.67062 0 
-6.78048 -6.72498 0 
-6.37882 -6.65021 0 
-5.9894 -6.72413 0 
-5.59835 -6.66647 0 
-5.19115 -6.62583 0 
-4.77983 -6.66374 0 
-4.36329 -6.62983 0 
-3.94831 -6.64291 0 
-3.53852 -6.62937 0 
-3.14159 -6.65796 0 
-2.76424 -6.66543 0 
-2.39434 -6.71072 0 
-2.0561 -6.74937 0 
-1.77141 -6.62997 0 
-1.44793 -6.84597 0 
-1.20812 -6.78051 0 
-0.678298 -7.2994 0 
-0.00319924 -7.2575 0 
0.460337 -7.26897 0 
1.18334 -6.90525 0 
1.48457 -6.78337 0 
1.84278 -6.61238 0 
2.07234 -6.78318 0 
2.3796 -6.6972 0 
2.75603 -6.66094 0 
3.13118 -6.67204 0 
3.53243 -6.63029 0 
3.93271 -6.66613 0 
4.36794 -6.6527 0 
4.77561 -6.66135 0 
5.20499 -6.66646 0 
5.62304 -6.69042 0 
6.04336 -6.67123 0 
6.45396 -6.66631 0 
6.87431 -6.66213 0 
7.29399 -6.65366 0 
7.70549 -6.65424 0 
8.12324 -6.66871 0 
8.56549 -6.66354 0 
8.98232 -6.62338 0 
9.40821 -6.6965 0 
9.88449 -6.66601 0 
10.3177 -6.68248 0 
10.7647 -6.77502 0 
11.1709 -6.62967 0 
11.576 -6.70737 0 
12 -6.49908 0 
-12 -6.05499 0 
-11.555 -6.15939 0 
-11.1201 -6.31655 0 
-10.6889 -6.20682 0 
-10.2674 -6.307 0 
-9.83429 -6.2178 0 
-9.40259 -6.23822 0 
-8.9522 -6.23081 0 
-8.51773 -6.27147 0 
-8.07977 -6.22775 0 
-7.65541 -6.28208 0 
-7.23606 -6.23338 0 
-6.81513 -6.28666 0 
-6.40977 -6.20429 0 
-5.99683 -6.26375 0 
-5.58677 -6.22102 0 
-5.17418 -6.17428 0 
-4.76702 -6.22313 0 
-4.36046 -6.17624 0 
-3.95925 -6.2035 0 
-3.56514 -6.17807 0 
-3.17547 -6.2132 0 
-2.80347 -6.21417 0 
-2.45803 -6.27338 0 
-2.13003 -6.29979 0 
-1.82887 -6.23858 0 
-1.52682 -6.44002 0 
-1.17698 -6.53877 0 
-0.872598 -6.90293 0 
-0.278207 -7.1918 0 
0.879374 -7.04074 0 
1.19472 -6.63341 0 
1.52752 -6.48759 0 
1.80714 -6.26123 0 
2.13377 -6.28165 0 
2.46053 -6.27411 0 
2.79342 -6.20813 0 
3.16262 -6.23294 0 
3.50935 -6.13758 0 
3.87051 -6.20983 0 
4.25672 -6.24363 0 
4.69184 -6.20681 0 
5.09685 -6.24033 0 
5.52867 -6.24601 0 
5.93511 -6.24162 0 
6.35546 -6.21981 0 
6.76636 -6.22913 0 
7.18838 -6.22008 0 
7.61027 -6.20385 0 
8.02424 -6.22138 0 
8.44655 -6.25095 0 
8.88332 -6.18056 0 
9.32846 -6.23676 0 
9.74957 -6.2875 0 
10.2498 -6.23432 0 
10.6978 -6.33053 0 
11.1231 -6.18354 0 
11.5689 -6.24523 0 
12 -6.05498 0 
-12 -5.62855 0 
-11.5529 -5.71274 0 
-11.1136 -5.86796 0 
-10.6689 -5.75902 0 
-10.233 -5.86022 0 
-9.78577 -5.77262 0 
-9.33717 -5.81605 0 
-8.89208 -5.8014 0 
-8.46589 -5.83745 0 
-8.05509 -5.76776 0 
-7.65501 -5.84507 0 
-7.25569 -5.77707 0 
-6.84766 -5.84732 0 
-6.43224 -5.7668 0 
-6.00997 -5.82437 0 
-5.58895 -5.78457 0 
-5.17536 -5.72899 0 
-4.76219 -5.77813 0 
-4.36287 -5.71918 0 
-3.97111 -5.75527 0 
-3.58876 -5.72343 0 
-3.21 -5.77369 0 
-2.8361 -5.77064 0 
-2.49302 -5.81983 0 
-2.18657 -5.87062 0 
-1.87746 -5.86904 0 
-1.58746 -6.04913 0 
-1.35582 -6.28756 0 
-0.643128 -7.19692 0 
0.281544 -7.14426 0 
0.690451 -7.12217 0 
1.41309 -6.3416 0 
1.63784 -6.03682 0 
1.93494 -5.83099 0 
2.19728 -5.88083 0 
2.4869 -5.81279 0 
2.83123 -5.77305 0 
3.17245 -5.75486 0 
3.56523 -5.70142 0 
3.95309 -5.75291 0 
4.36098 -5.82893 0 
4.78627 -5.7674 0 
5.20927 -5.82564 0 
5.61806 -5.7954 0 
6.03372 -5.80513 0 
6.45422 -5.77868 0 
6.87139 -5.79643 0 
7.29241 -5.78286 0 
7.71404 -5.76176 0 
8.13491 -5.791 0 
8.54526 -5.80911 0 
9.02409 -5.77577 0 
9.4446 -5.79648 0 
9.88849 -5.89739 0 
10.2761 -5.73459 0 
10.6608 -5.89492 0 
11.0847 -5.74192 0 
11.5398 -5.81431 0 
12 -5.62854 0 
-12 -5.21377 0 
-11.5458 -5.27825 0 
-11.1019 -5.4345 0 
-10.652 -5.32334 0 
-10.2091 -5.43118 0 
-9.77286 -5.32656 0 
-9.34623 -5.39174 0 
-8.92285 -5.35699 0 
-8.49961 -5.39168 0 
-8.08056 -5.32552 0 
-7.65941 -5.3841 0 
-7.24316 -5.33368 0 
-6.83234 -5.40452 0 
-6.41846 -5.3247 0 
-6.00383 -5.39518 0 
-5.58661 -5.34727 0 
-5.19137 -5.26588 0 
-4.79951 -5.33797 0 
-4.39564 -5.2789 0 
-3.99415 -5.30309 0 
-3.58588 -5.30366 0 
-3.19412 -5.33885 0 
-2.84578 -5.32485 0 
-2.51443 -5.38174 0 
-2.19902 -5.42236 0 
-1.9245 -5.49609 0 
-1.66889 -5.65838 0 
1.68126 -5.65862 0 
1.91382 -5.46619 0 
2.21228 -5.40721 0 
2.53498 -5.37827 0 
2.86228 -5.3173 0 
3.22545 -5.33112 0 
3.62239 -5.27191 0 
4.0172 -5.32214 0 
4.40461 -5.40852 0 
4.73711 -5.25326 0 
5.09954 -5.38728 0 
5.50213 -5.36011 0 
5.92087 -5.36672 0 
6.33127 -5.35726 0 
6.76335 -5.35839 0 
7.17614 -5.35616 0 
7.59809 -5.3371 0 
8.03601 -5.34967 0 
8.45325 -5.35304 0 
8.86831 -5.40609 0 
9.35614 -5.34731 0 
9.7987 -5.4552 0 
10.2282 -5.30645 0 
10.6863 -5.42693 0 
11.1161 -5.29202 0 
11.5446 -5.3986 0 
12 -5.21375 0 
-12 -4.80613 0 
-11.5459 -4.8565 0 
-11.091 -5.01081 0 
-10.6519 -4.88339 0 
-10.2187 -5.00414 0 
-9.78664 -4.88915 0 
-9.35137 -4.94992 0 
-8.92211 -4.92043 0 
-8.49707 -4.94915 0 
-8.07872 -4.88356 0 
-7.66061 -4.94575 0 
-7.24475 -4.89692 0 
-6.82601 -4.96429 0 
-6.41465 -4.87898 0 
-6.00911 -4.96228 0 
-5.60219 -4.90195 0 
-5.1625 -4.85333 0 
-4.72884 -4.89529 0 
-4.29967 -4.85351 0 
-3.88022 -4.89804 0 
-3.4615 -4.90215 0 
-3.09456 -4.89408 0 
-2.73061 -4.91189 0 
-2.40363 -4.95213 0 
-2.11012 -4.98042 0 
-1.85739 -5.11268 0 
1.85312 -5.10778 0 
2.10023 -4.98896 0 
2.39961 -4.95421 0 
2.73201 -4.89855 0 
3.09297 -4.90365 0 
3.46105 -4.88659 0 
3.89735 -4.88243 0 
4.30522 -4.93546 0 
4.75561 -4.85419 0 
5.1899 -4.93453 0 
5.61128 -4.93296 0 
6.01978 -4.92586 0 
6.44791 -4.94285 0 
6.86156 -4.92048 0 
7.27553 -4.92355 0 
7.71559 -4.92694 0 
8.12995 -4.90939 0 
8.54745 -4.91813 0 
8.98689 -5.01566 0 
9.38479 -4.87258 0 
9.77384 -5.02897 0 
10.1993 -4.87175 0 
10.6451 -5.00454 0 
11.1009 -4.87585 0 
11.5555 -4.97696 0 
12 -4.80611 0 
-12 -4.4025 0 
-11.5613 -4.43782 0 
-11.1061 -4.59158 0 
-10.6638 -4.45962 0 
-10.2137 -4.57504 0 
-9.795 -4.43972 0 
-9.37827 -4.51999 0 
-8.94724 -4.49346 0 
-8.51457 -4.51145 0 
-8.09904 -4.44539 0 
-7.67936 -4.50903 0 
-7.26218 -4.46546 0 
-6.84417 -4.53086 0 
-6.41883 -4.46229 0 
-5.98023 -4.52381 0 
-5.54912 -4.48824 0 
-5.14152 -4.41713 0 
-4.73463 -4.48806 0 
-4.37473 -4.37878 0 
-4.00797 -4.48115 0 
-3.61016 -4.50472 0 
-3.22777 -4.46231 0 
-2.87234 -4.48934 0 
-2.53909 -4.50112 0 
-2.23725 -4.49481 0 
-1.94726 -4.55228 0 
1.94413 -4.55033 0 
2.2346 -4.49488 0 
2.53588 -4.50429 0 
2.86792 -4.47681 0 
3.20105 -4.46079 0 
3.59538 -4.50478 0 
4.0045 -4.47698 0 
4.40064 -4.5275 0 
4.77639 -4.39233 0 
5.1513 -4.50936 0 
5.5545 -4.51203 0 
5.97216 -4.49023 0 
6.38118 -4.5244 0 
6.79784 -4.49301 0 
7.2121 -4.49168 0 
7.62732 -4.52093 0 
8.05959 -4.47632 0 
8.47711 -4.48153 0 
[...]
POINT_DATA 8617 
VECTORS vectors float
0 0 1 
8.47793e-08 0.00105554 0.999999 
7.95165e-08 0.00219682 0.999998 
7.12275e-05 0.00326044 0.999995 
6.78012e-05 0.00454118 0.99999 
6.55661e-05 0.00578449 0.999983 
6.40578e-05 0.00717355 0.999974 
6.31999e-05 0.00873057 0.999962 
6.26727e-05 0.0104009 0.999946 
6.24675e-05 0.0123212 0.999924 
6.22782e-05 0.0144227 0.999896 
6.22699e-05 0.016882 0.999857 
6.20621e-05 0.0197915 0.999804 
6.21793e-05 0.0227667 0.999741 
6.20907e-05 0.0265365 0.999648 
6.19168e-05 0.0313799 0.999508 
6.18283e-05 0.0376272 0.999292 
6.1513e-05 0.0465735 0.998915 
6.10286e-05 0.0598149 0.998209 
6.03465e-05 0.079417 0.996841 
2.67412e-06 0.108919 0.994051 
2.59869e-06 0.152509 0.988302 
2.48379e-06 0.215841 0.976428 
2.3223e-06 0.304856 0.952399 
6.65861e-05 0.426098 0.904677 
-8.98078e-07 0.585982 0.810324 
6.12551e-05 0.725362 0.688368 
-8.00975e-08 0.852661 0.522465 
8.51671e-07 0.960236 0.279189 
2.16133e-07 0.999991 -0.00413752 
-8.5768e-07 0.959784 -0.280741 
1.74622e-06 0.854529 -0.519404 
-6.12247e-05 0.727551 -0.686054 
9.51598e-07 0.587007 -0.809582 
-6.63942e-05 0.430385 -0.902646 
-2.31326e-06 0.308189 -0.951325 
-2.48055e-06 0.217573 -0.976044 
-2.59403e-06 0.153502 -0.988148 
-2.67727e-06 0.109581 -0.993978 
-6.01715e-05 0.0808052 -0.99673 
-6.10154e-05 0.0602622 -0.998183 
-6.14978e-05 0.0467459 -0.998907 
-6.17609e-05 0.0375546 -0.999295 
-6.19797e-05 0.0310378 -0.999518 
-6.20539e-05 0.0261321 -0.999658 
-6.2145e-05 0.0222858 -0.999752 
-6.22017e-05 0.0191032 -0.999818 
-6.22641e-05 0.0164317 -0.999865 
-6.23147e-05 0.0141327 -0.9999 
-6.2436e-05 0.0120925 -0.999927 
-6.2727e-05 0.0102449 -0.999948 
-6.31612e-05 0.00865812 -0.999963 
-6.40752e-05 0.0071545 -0.999974 
-6.55616e-05 0.00574523 -0.999983 
-6.78234e-05 0.00455156 -0.99999 
-7.11627e-05 0.00330258 -0.999995 
-7.96001e-08 0.00209848 -0.999998 
-8.46946e-08 0.00112681 -0.999999 
0 1.22465e-16 -1 
0 0 1 
8.69361e-08 0.000714795 1 
9.53763e-08 0.00183061 0.999998 
9.7411e-08 0.00282685 0.999996 
6.51265e-08 0.00396115 0.999992 
8.8405e-08 0.00512176 0.999987 
7.84492e-08 0.00640119 0.99998 
7.4445e-08 0.00783682 0.999969 
1.04749e-07 0.00944632 0.999955 
9.46181e-08 0.0112391 0.999937 
5.68561e-08 0.0132851 0.999912 
8.45983e-08 0.0155475 0.999879 
1.0067e-07 0.0181794 0.999835 
1.02756e-07 0.0213388 0.999772 
5.87435e-08 0.0254816 0.999675 
5.92202e-08 0.0305739 0.999533 
9.43014e-08 0.0371306 0.99931 
-8.28285e-08 0.0476307 0.998865 
-3.64936e-07 0.0627181 0.998031 
-7.05822e-08 0.086031 0.996292 
-8.93764e-08 0.12056 0.992706 
-2.14084e-07 0.171627 0.985162 
-4.55623e-07 0.243145 0.96999 
-9.06664e-07 0.341785 0.939778 
-1.23645e-06 0.46535 0.885127 
-1.43015e-07 0.618691 0.785634 
-1.46069e-07 0.737773 0.675048 
-6.7448e-06 0.885312 0.464998 
-1.10715e-07 0.960133 0.279542 
-6.77993e-07 0.999885 0.015152 
1.26104e-07 0.962408 -0.271609 
2.27477e-07 0.869557 -0.493833 
1.47242e-07 0.736445 -0.676498 
1.48242e-07 0.620025 -0.784582 
1.27409e-06 0.464435 -0.885607 
9.48635e-07 0.338837 -0.940845 
5.29672e-07 0.238109 -0.971239 
1.64558e-07 0.165358 -0.986234 
6.62694e-08 0.11621 -0.993225 
7.92438e-08 0.0816652 -0.99666 
7.13708e-08 0.0600199 -0.998197 
-6.4929e-08 0.0452268 -0.998977 
-5.8741e-08 0.0355872 -0.999367 
-5.87302e-08 0.0287927 -0.999585 
-1.02965e-07 0.0239372 -0.999713 
-8.34085e-08 0.0202057 -0.999796 
-6.56641e-08 0.0172002 -0.999852 
-6.09654e-08 0.0147109 -0.999892 
-7.28276e-08 0.0125783 -0.999921 
-6.85461e-08 0.0106785 -0.999943 
-1.04368e-07 0.00899248 -0.99996 
-5.73229e-08 0.00754225 -0.999972 
-5.56321e-08 0.00615743 -0.999981 
-6.75314e-08 0.00492657 -0.999988 
-6.31048e-08 0.00381802 -0.999993 
-9.75374e-08 0.00270598 -0.999996 
-8.26625e-08 0.00171953 -0.999999 
-7.749e-08 0.000730165 -1 
0 1.22465e-16 -1 
0 0 1 
6.18326e-08 0.00069437 1 
9.59817e-08 0.00152195 0.999999 
7.79479e-08 0.00243057 0.999997 
6.04602e-08 0.00348378 0.999994 
9.68645e-08 0.00456155 0.99999 
1.04904e-07 0.0057458 0.999983 
7.5761e-08 0.00709034 0.999975 
7.16387e-08 0.00858642 0.999963 
1.06116e-07 0.0103168 0.999947 
6.61533e-08 0.0122162 0.999925 
1.02537e-07 0.0144154 0.999896 
6.13819e-08 0.0169093 0.999857 
7.23701e-08 0.0199707 0.999801 
6.94597e-08 0.0241639 0.999708 
8.50014e-08 0.0292027 0.999574 
-5.67242e-08 0.0363264 0.99934 
-6.24071e-08 0.0472116 0.998885 
-8.1717e-08 0.0637436 0.997966 
-6.86973e-08 0.089781 0.995962 
-1.61541e-07 0.129077 0.991635 
-2.37918e-07 0.186688 0.982419 
-9.07043e-07 0.267964 0.963429 
-1.60363e-06 0.369767 0.929124 
-1.21457e-07 0.504456 0.863437 
-2.55055e-07 0.6837 0.729763 
-8.32618e-06 0.799708 0.60039 
-8.46947e-06 0.919884 0.39219 
-1.87333e-07 0.983049 0.183342 
8.49693e-08 0.999206 -0.0398362 
2.13218e-07 0.96247 -0.271388 
8.72187e-06 0.92299 -0.384824 
8.22577e-06 0.795206 -0.60634 
2.69776e-07 0.705512 -0.708698 
1.26511e-07 0.517409 -0.855738 
1.60279e-06 0.378267 -0.925697 
8.22701e-07 0.287643 -0.957738 
4.63163e-07 0.200292 -0.979736 
2.11479e-07 0.138409 -0.990375 
9.84011e-08 0.0958554 -0.995395 
2.0249e-07 0.0677631 -0.997701 
6.59041e-08 0.0492091 -0.998788 
6.29359e-08 0.0375135 -0.999296 
-1.07099e-07 0.0296402 -0.999561 
-6.49849e-08 0.0241203 -0.999709 
-8.6313e-08 0.0201281 -0.999797 
-6.23646e-08 0.0170077 -0.999855 
-1.00513e-07 0.0144482 -0.999896 
-6.39034e-08 0.0123152 -0.999924 
-5.70496e-08 0.0104732 -0.999945 
-1.01995e-07 0.00878688 -0.999961 
-8.87728e-08 0.00727758 -0.999974 
-7.92743e-08 0.00604094 -0.999982 
-8.35118e-08 0.0047662 -0.999989 
-7.38475e-08 0.00367901 -0.999993 
-7.17854e-08 0.00271544 -0.999996 
-1.04106e-07 0.00165314 -0.999999 
-5.96823e-08 0.00075792 -1 
0 1.22465e-16 -1 
0 0 1 
8.97567e-08 0.000740414 1 
9.05955e-08 0.00156456 0.999999 
9.08099e-08 0.00242954 0.999997 
9.36622e-08 0.00340119 0.999994 
7.11186e-08 0.00440251 0.99999 
8.57079e-08 0.00560413 0.999984 
1.03369e-07 0.00690051 0.999976 
9.27454e-08 0.00842057 0.999965 
9.95638e-08 0.01002 0.99995 
1.03272e-07 0.0120353 0.999928 
9.83704e-08 0.0139873 0.999902 
6.43961e-08 0.0167767 0.999859 
6.84113e-08 0.0196143 0.999808 
5.68338e-08 0.0234891 0.999724 
5.75142e-08 0.0285965 0.999591 
-6.16832e-08 0.0366222 0.999329 
-7.0385e-08 0.0489516 0.998801 
-6.13413e-08 0.0692086 0.997602 
-7.94644e-08 0.100808 0.994906 
-2.42789e-07 0.151437 0.988467 
-7.35501e-07 0.222443 0.974946 
-1.23931e-06 0.324985 0.945719 
-1.19101e-07 0.448558 0.893754 
-2.05895e-07 0.588022 0.808845 
-8.41437e-06 0.77369 0.633564 
-8.09437e-06 0.850704 0.525645 
-1.19771e-05 0.958211 0.286064 
-7.03973e-06 0.969725 0.244201 
-6.39115e-08 0.999993 0.00383759 
2.32163e-07 0.988603 -0.150543 
9.52309e-06 0.935697 -0.352804 
1.06968e-05 0.867047 -0.498227 
8.05765e-06 0.757074 -0.653329 
2.01316e-07 0.582017 -0.813177 
1.25446e-07 0.464185 -0.885738 
1.38414e-06 0.332139 -0.943231 
6.2208e-07 0.22738 -0.973806 
2.56338e-07 0.154038 -0.988065 
9.07112e-08 0.102079 -0.994776 
8.91455e-08 0.0686926 -0.997638 
6.17302e-08 0.0491128 -0.998793 
7.48881e-08 0.0361714 -0.999346 
-8.75762e-08 0.0281441 -0.999604 
-9.82765e-08 0.0226766 -0.999743 
-1.00157e-07 0.018841 -0.999822 
-8.71814e-08 0.0158298 -0.999875 
-5.69956e-08 0.0134018 -0.99991 
-7.86584e-08 0.0114115 -0.999935 
-5.5522e-08 0.00967797 -0.999953 
-8.14824e-08 0.00805541 -0.999968 
-9.43226e-08 0.00668954 -0.999978 
-8.70504e-08 0.00550224 -0.999985 
-1.04634e-07 0.00426428 -0.999991 
-7.41879e-08 0.00327047 -0.999995 
-1.026e-07 0.00236224 -0.999997 
-8.90451e-08 0.00152777 -0.999999 
-8.53167e-08 0.000733987 -1 
0 1.22465e-16 -1 
0 0 1 
6.32597e-08 0.000752592 1 
8.53378e-08 0.00157049 0.999999 
9.65583e-08 0.00238161 0.999997 
7.20183e-08 0.0032675 0.999995 
1.04862e-07 0.00424468 0.999991 
9.01907e-08 0.00531711 0.999986 
9.62501e-08 0.0065697 0.999978 
7.39814e-08 0.00797882 0.999968 
8.4445e-08 0.00949824 0.999955 
7.70012e-08 0.0113872 0.999935 
1.00644e-07 0.0134095 0.99991 
6.35337e-08 0.0159808 0.999872 
8.08115e-08 0.018934 0.999821 
1.01815e-07 0.0230956 0.999733 
-5.9928e-08 0.0289711 0.99958 
-8.08641e-08 0.0382207 0.999269 
-1.03226e-07 0.0522647 0.998633 
-7.92486e-08 0.0760232 0.997106 
-1.05934e-07 0.112209 0.993685 
-3.11907e-07 0.171516 0.985181 
-7.95195e-07 0.25646 0.966555 
-7.99573e-08 0.379018 0.925389 
-1.64761e-07 0.520303 0.853982 
-6.28874e-06 0.686924 0.726729 
-1.04339e-05 0.877078 0.480349 
-6.43372e-07 0.955455 0.295137 
-8.26085e-06 0.999914 0.0130888 
-7.31544e-07 0.996457 0.0841051 
-1.72253e-06 0.996739 0.0806969 
6.41509e-06 0.978473 -0.206373 
1.06547e-05 0.997163 -0.0752742 
5.47086e-07 0.956407 -0.292038 
1.0574e-05 0.896353 -0.443341 
6.21913e-06 0.702407 -0.711776 
1.63533e-07 0.527612 -0.849485 
8.25911e-08 0.388826 -0.921311 
7.99141e-07 0.261216 -0.96528 
3.55548e-07 0.186066 -0.982537 
1.1559e-07 0.124017 -0.99228 
5.54925e-08 0.0829434 -0.996554 
7.40127e-08 0.0560839 -0.998426 
1.064e-07 0.0402146 -0.999191 
7.53483e-08 0.0299878 -0.99955 
9.77304e-08 0.0237647 -0.999718 
-1.08585e-07 0.0193423 -0.999813 
-7.37495e-08 0.0161751 -0.999869 
-5.8607e-08 0.0136224 -0.999907 
-8.65893e-08 0.0115202 -0.999934 
-7.42902e-08 0.00978171 -0.999952 
-9.13986e-08 0.00824356 -0.999966 
-9.30022e-08 0.00680153 -0.999977 
-9.9529e-08 0.00555023 -0.999985 
-9.38754e-08 0.00449038 -0.99999 
-1.06014e-07 0.00330775 -0.999995 
-1.02118e-07 0.00241018 -0.999997 
-7.82165e-08 0.00157698 -0.999999 
-5.11818e-08 0.000732937 -1 
0 1.22465e-16 -1 
0 0 1 
3.83161e-08 0.000750203 1 
9.89146e-08 0.00155449 0.999999 
6.91553e-08 0.00238285 0.999997 
1.01487e-07 0.00327232 0.999995 
9.8685e-08 0.00424105 0.999991 
1.0544e-07 0.00541204 0.999985 
7.01163e-08 0.0065964 0.999978 
7.27451e-08 0.00803514 0.999968 
7.43681e-08 0.00945171 0.999955 
9.19095e-08 0.0111368 0.999938 
1.06758e-07 0.0130494 0.999915 
5.5105e-08 0.015476 0.99988 
8.00059e-08 0.0185653 0.999828 
-7.61051e-08 0.0229335 0.999737 
-7.52619e-08 0.0294462 0.999566 
-9.00248e-08 0.0397986 0.999208 
-6.34985e-08 0.0560876 0.998426 
-8.96836e-08 0.0834665 0.996511 
-1.22966e-07 0.125052 0.99215 
-3.63023e-07 0.193547 0.981091 
-6.46635e-07 0.291812 0.956476 
-1.07622e-07 0.439786 0.898103 
-2.08599e-07 0.614545 0.788882 
-9.36164e-06 0.789351 0.613942 
-9.45384e-06 0.954098 0.299496 
-9.59211e-06 0.999358 0.0358239 
-1.24782e-07 0.998506 -0.0546364 
-8.76698e-06 0.986098 0.166164 
8.33531e-06 0.997982 -0.0635039 
9.23991e-07 0.986708 -0.162502 
2.06938e-07 0.999792 0.0204093 
9.7591e-06 0.998728 -0.0504227 
1.09215e-05 0.949464 -0.313875 
7.56292e-06 0.78994 -0.613184 
2.07323e-07 0.627494 -0.778621 
9.70643e-08 0.447325 -0.894371 
9.54854e-07 0.309167 -0.951008 
3.31517e-07 0.202296 -0.979324 
1.81113e-07 0.127706 -0.991812 
6.8641e-08 0.0821026 -0.996624 
7.9049e-08 0.054896 -0.998492 
6.8856e-08 0.0383628 -0.999264 
6.80271e-08 0.0288502 -0.999584 
5.4646e-08 0.0226254 -0.999744 
-1.06217e-07 0.0183723 -0.999831 
-6.70512e-08 0.015309 -0.999883 
-6.45634e-08 0.0128878 -0.999917 
-5.53232e-08 0.0108908 -0.999941 
-8.49718e-08 0.00920658 -0.999958 
-5.50612e-08 0.00777302 -0.99997 
-8.09713e-08 0.0062907 -0.99998 
-8.0023e-08 0.00515518 -0.999987 
-1.02596e-07 0.00411815 -0.999992 
-7.163e-08 0.00322161 -0.999995 
-7.48629e-08 0.00244092 -0.999997 
-7.21996e-08 0.00162645 -0.999999 
-4.07497e-08 0.000782114 -1 
0 1.22465e-16 -1 
0 0 1 
2.36477e-09 0.000765078 1 
3.39571e-08 0.00156568 0.999999 
-1.19514e-09 0.0024042 0.999997 
5.19952e-08 0.0032963 0.999995 
1.2424e-08 0.00425808 0.999991 
9.26239e-08 0.00531864 0.999986 
5.47019e-08 0.00647497 0.999979 
1.02734e-07 0.00780356 0.99997 
9.10419e-08 0.00927741 0.999957 
7.20197e-08 0.0110064 0.999939 
7.765e-08 0.0130233 0.999915 
9.32074e-08 0.015478 0.99988 
-7.19362e-08 0.0186976 0.999825 
-6.01738e-08 0.02319 0.999731 
-8.52113e-08 0.0301599 0.999545 
-1.04558e-07 0.0409173 0.999163 
-6.08814e-08 0.0577762 0.99833 
-1.08748e-07 0.0878435 0.996134 
-1.36109e-07 0.135751 0.990743 
-2.52842e-07 0.219225 0.975674 
-1.10138e-06 0.341516 0.939876 
-7.97541e-08 0.511405 0.85934 
-1.98852e-07 0.704735 0.709471 
-9.57999e-06 0.896951 0.44213 
-8.61163e-06 0.992328 0.12363 
8.40613e-07 0.983309 -0.181944 
-1.65659e-06 0.977701 0.210001 
6.43997e-06 0.998302 -0.0582569 
1.0899e-05 0.899564 -0.436788 
1.94199e-07 0.697594 -0.716493 
8.63207e-08 0.504568 -0.863372 
7.50093e-07 0.332535 -0.943091 
2.70331e-07 0.21108 -0.977469 
8.29836e-08 0.132652 -0.991163 
7.85785e-08 0.0848839 -0.996391 
7.33944e-08 0.0616994 -0.998095 
9.57686e-08 0.0438436 -0.999038 
5.8752e-08 0.0320277 -0.999487 
1.02015e-07 0.0243984 -0.999702 
8.89903e-08 0.0195637 -0.999809 
1.01629e-07 0.01602 -0.999872 
5.51588e-08 0.0134631 -0.999909 
-1.16424e-08 0.0113558 -0.999936 
-8.61551e-08 0.00952569 -0.999955 
-6.28421e-08 0.0080238 -0.999968 
-5.55685e-08 0.00671769 -0.999977 
-1.35806e-08 0.00531714 -0.999986 
-9.03234e-08 0.00426156 -0.999991 
-6.33683e-09 0.00330325 -0.999995 
-3.92394e-08 0.00237531 -0.999997 
8.55347e-09 0.00156335 -0.999999 
4.07637e-10 0.000770298 -1 
0 1.22465e-16 -1 
0 0 1 
-2.55483e-08 0.000770691 1 
-5.68932e-08 0.00158804 0.999999 
-1.00431e-07 0.00241254 0.999997 
-8.29096e-08 0.00328088 0.999995 
-8.24488e-08 0.00423838 0.999991 
-7.32244e-08 0.00530492 0.999986 
-1.00296e-07 0.00648981 0.999979 
-7.25474e-08 0.00779539 0.99997 
-8.99974e-08 0.00929449 0.999957 
-6.94546e-08 0.0109913 0.99994 
-6.24209e-08 0.0130391 0.999915 
-5.44681e-08 0.0155602 0.999879 
-7.58319e-08 0.0188629 0.999822 
-6.33777e-08 0.0234092 0.999726 
-8.35199e-08 0.0305843 0.999532 
-6.78995e-08 0.0435114 0.999053 
-5.96621e-08 0.0650501 0.997882 
-9.6141e-08 0.103559 0.994623 
-1.48292e-07 0.168166 0.985759 
-4.4857e-07 0.277997 0.960582 
-1.19327e-06 0.43227 0.901744 
-1.29713e-07 0.646782 0.762675 
-2.55221e-07 0.861797 0.507253 
-6.61768e-06 0.99192 0.126868 
-1.24577e-07 0.972102 -0.234559 
-8.37318e-07 0.966696 0.255927 
6.22298e-06 0.994333 -0.106314 
2.45022e-07 0.866265 -0.499584 
1.26064e-07 0.649097 -0.760706 
1.134e-06 0.43248 -0.901643 
4.35302e-07 0.278571 -0.960416 
1.38888e-07 0.165053 -0.986285 
1.97082e-07 0.101634 -0.994822 
7.86193e-08 0.0635782 -0.997977 
9.29203e-08 0.0419754 -0.999119 
6.51045e-08 0.0302748 -0.999542 
5.46898e-08 0.0233375 -0.999728 
5.92195e-08 0.0186371 -0.999826 
1.01997e-07 0.01543 -0.999881 
5.54475e-08 0.0129708 -0.999916 
8.14548e-08 0.0108545 -0.999941 
9.07603e-08 0.00917582 -0.999958 
6.73935e-08 0.00771439 -0.99997 
7.28642e-08 0.00640793 -0.999979 
9.49401e-08 0.00528881 -0.999986 
6.29788e-08 0.00431567 -0.999991 
7.81001e-08 0.00337016 -0.999994 
6.27717e-08 0.00245591 -0.999997 
5.90837e-08 0.00159475 -0.999999 
3.56716e-08 0.000752036 -1 
0 1.22465e-16 -1 
0 0 1 
-4.39763e-08 0.000751024 1 
-8.79124e-08 0.0015719 0.999999 
-8.90736e-08 0.00240958 0.999997 
-1.032e-07 0.00331391 0.999995 
-1.03587e-07 0.0042515 0.999991 
-7.643e-08 0.00526885 0.999986 
-9.98573e-08 0.0064881 0.999979 
-1.0065e-07 0.00775796 0.99997 
-7.12197e-08 0.00933292 0.999956 
-7.17447e-08 0.0109526 0.99994 
-1.03262e-07 0.0130633 0.999915 
-8.15969e-08 0.0155827 0.999879 
-9.40376e-08 0.0190467 0.999819 
-7.2537e-08 0.0240747 0.99971 
-1.0343e-07 0.0323652 0.999476 
-6.0215e-08 0.045431 0.998967 
-6.02749e-08 0.0665429 0.997784 
-6.68644e-08 0.0989179 0.995096 
-3.70586e-07 0.151392 0.988474 
-1.48737e-07 0.245452 0.969409 
-4.29048e-07 0.391242 0.920288 
-1.00982e-06 0.593535 0.804808 
-1.02924e-07 0.824393 0.566018 
-3.64149e-07 0.984144 0.177371 
8.36319e-07 0.949771 -0.312945 
-8.89325e-07 0.94814 0.317854 
1.7702e-07 0.984967 -0.172744 
9.82733e-08 0.826525 -0.5629 
9.21403e-07 0.59721 -0.802085 
4.26936e-07 0.403335 -0.915053 
1.4472e-07 0.249241 -0.968442 
1.91384e-07 0.151088 -0.98852 
5.98263e-08 0.0954043 -0.995439 
9.60563e-08 0.0641078 -0.997943 
1.0471e-07 0.0448378 -0.998994 
7.29451e-08 0.0321979 -0.999482 
9.99882e-08 0.0242773 -0.999705 
8.04896e-08 0.0195375 -0.999809 
9.3568e-08 0.0160225 -0.999872 
5.49281e-08 0.0134226 -0.99991 
5.57323e-08 0.0113255 -0.999936 
1.00042e-07 0.00950349 -0.999955 
8.36081e-08 0.00794419 -0.999968 
8.73144e-08 0.00661083 -0.999978 
9.97982e-08 0.00538849 -0.999985 
8.2378e-08 0.00425185 -0.999991 
9.41796e-08 0.00326631 -0.999995 
7.17776e-08 0.00242125 -0.999997 
9.66302e-08 0.00162024 -0.999999 
5.44529e-08 0.000792477 -1 
0 1.22465e-16 -1 
0 0 1 
-5.10902e-08 0.000775246 1 
-7.15829e-08 0.00154544 0.999999 
-9.83033e-08 0.0023493 0.999997 
-1.05945e-07 0.00324863 0.999995 
-8.19624e-08 0.00428697 0.999991 
-1.02829e-07 0.0054409 0.999985 
-6.15051e-08 0.00671469 0.999977 
-8.25031e-08 0.0080504 0.999968 
-5.525e-08 0.00972882 0.999953 
-6.83392e-08 0.0115229 0.999934 
-5.57618e-08 0.0135436 0.999908 
-1.06547e-07 0.0158567 0.999874 
-1.00114e-07 0.0190904 0.999818 
-1.06673e-07 0.0235531 0.999723 
-7.2218e-08 0.0306963 0.999529 
6.61243e-08 0.0420098 0.999117 
-6.44871e-08 0.0624027 0.998051 
7.06433e-08 0.0963283 0.99535 
3.78638e-07 0.155975 0.987761 
6.91992e-08 0.239636 0.970863 
5.70487e-08 0.366102 0.930575 
7.17826e-08 0.552524 0.833497 
8.44955e-08 0.779813 0.626012 
1.04705e-07 0.965184 0.261571 
1.07647e-07 0.957547 -0.288277 
-1.97577e-07 0.95745 0.288598 
-3.08151e-07 0.964875 -0.262708 
-6.18069e-08 0.786292 -0.617855 
-1.54261e-07 0.572765 -0.81972 
-5.92193e-08 0.379206 -0.925312 
-1.93056e-07 0.246392 -0.96917 
-3.7471e-07 0.158205 -0.987406 
7.4678e-08 0.101412 -0.994845 
-5.6975e-08 0.0648284 -0.997896 
5.47754e-08 0.0438828 -0.999037 
-5.57287e-08 0.0314787 -0.999504 
5.57751e-08 0.024184 -0.999708 
7.97858e-08 0.0192313 -0.999815 
1.02767e-07 0.0159206 -0.999873 
5.49961e-08 0.0133772 -0.999911 
6.16874e-08 0.0112672 -0.999937 
1.05395e-07 0.00954116 -0.999954 
6.38172e-08 0.00798262 -0.999968 
7.42374e-08 0.00662008 -0.999978 
8.57384e-08 0.00538764 -0.999985 
7.4876e-08 0.00428593 -0.999991 
8.40024e-08 0.00337671 -0.999994 
8.70306e-08 0.00245072 -0.999997 
6.77912e-08 0.00160772 -0.999999 
4.95948e-08 0.000779928 -1 
0 1.22465e-16 -1 
0 0 1 
-7.24939e-08 0.000795568 1 
-7.7589e-08 0.00158795 0.999999 
-9.83619e-08 0.00243734 0.999997 
-1.0168e-07 0.00328957 0.999995 
-8.2234e-08 0.00421683 0.999991 
-7.23235e-08 0.00529987 0.999986 
-5.521e-08 0.00654878 0.999979 
-1.01226e-07 0.00794017 0.999968 
-1.04762e-07 0.00947224 0.999955 
-5.5209e-08 0.0113578 0.999935 
-1.08049e-07 0.0136435 0.999907 
-6.00275e-08 0.0163781 0.999866 
-7.92071e-08 0.0200767 0.999798 
-7.1408e-08 0.0248518 0.999691 
1.06568e-07 0.0321365 0.999483 
7.78942e-08 0.043425 0.999057 
6.50104e-08 0.061196 0.998126 
8.0045e-08 0.0933295 0.995635 
6.07722e-08 0.148888 0.988854 
1.78111e-07 0.243543 0.96989 
4.69714e-07 0.389494 0.921029 
1.08319e-06 0.589401 0.807841 
1.02156e-07 0.814041 0.580807 
1.81926e-07 0.982419 0.186692 
-6.70293e-07 0.952271 -0.305254 
7.00378e-07 0.952779 0.303665 
-1.87838e-07 0.982077 -0.188479 
-1.1854e-07 0.808085 -0.589066 
-1.04025e-06 0.573391 -0.819282 
-4.99832e-07 0.377797 -0.925888 
-3.70706e-07 0.239882 -0.970802 
-1.054e-07 0.147683 -0.989035 
-9.77747e-08 0.0935596 -0.995614 
-1.08148e-07 0.0595972 -0.998223 
-5.96543e-08 0.0411368 -0.999154 
-9.44104e-08 0.0303308 -0.99954 
7.65145e-08 0.0234059 -0.999726 
7.89449e-08 0.0189282 -0.999821 
1.02533e-07 0.0156946 -0.999877 
1.06849e-07 0.0131572 -0.999913 
5.63178e-08 0.011192 -0.999937 
5.92299e-08 0.00939235 -0.999956 
6.45423e-08 0.00792769 -0.999969 
5.72162e-08 0.00657628 -0.999978 
8.22378e-08 0.00551619 -0.999985 
8.36082e-08 0.00444908 -0.99999 
1.01181e-07 0.00343868 -0.999994 
9.41715e-08 0.00248072 -0.999997 
7.02805e-08 0.0016336 -0.999999 
5.06471e-08 0.000784335 -1 
0 1.22465e-16 -1 
0 0 1 
-7.19019e-08 0.000794957 1 
-7.82245e-08 0.00161947 0.999999 
-8.07896e-08 0.00243614 0.999997 
-1.01093e-07 0.00329727 0.999995 
-9.75737e-08 0.00436377 0.99999 
-7.80648e-08 0.00549254 0.999985 
-5.45841e-08 0.0067234 0.999977 
-1.07042e-07 0.00816999 0.999967 
-9.28056e-08 0.00985782 0.999951 
-9.29697e-08 0.0117432 0.999931 
-8.60622e-08 0.0140093 0.999902 